LAMMPS data file Created by - (Written by Leela S. Dodda)

      15 atoms
      15 bonds
      24 angles
      30 dihedrals
       6 impropers
 
      15 atom types
      15 bond types
      24 angle types
      30 dihedral types
       6 improper types
 
   -2.189490    47.810510 xlo xhi
    0.092400    50.092400 ylo yhi
   -2.166930    47.833070 zlo zhi

Masses

       1     12.011  
       2     12.011  
       3     12.011  
       4      1.008  
       5     12.011  
       6      1.008  
       7     12.011  
       8      1.008  
       9     12.011  
      10      1.008  
      11      1.008  
      12     12.011  
      13      1.008  
      14      1.008  
      15      1.008  

Pair Coeffs 

       1      0.070  3.5500000 
       2      0.070  3.5500000 
       3      0.070  3.5500000 
       4      0.030  2.4200000 
       5      0.070  3.5500000 
       6      0.030  2.4200000 
       7      0.070  3.5500000 
       8      0.030  2.4200000 
       9      0.070  3.5500000 
      10      0.030  2.4200000 
      11      0.030  2.4200000 
      12      0.066  3.5000000 
      13      0.030  2.5000000 
      14      0.030  2.5000000 
      15      0.030  2.5000000 

Bond Coeffs 

       1   469.0000     1.4000 
       2   469.0000     1.4000 
       3   367.0000     1.0800 
       4   469.0000     1.4000 
       5   367.0000     1.0800 
       6   469.0000     1.4000 
       7   367.0000     1.0800 
       8   469.0000     1.4000 
       9   367.0000     1.0800 
      10   367.0000     1.0800 
      11   317.0000     1.5100 
      12   340.0000     1.0900 
      13   340.0000     1.0900 
      14   340.0000     1.0900 
      15   469.0000     1.4000 

Angle Coeffs 

       1     63.000    120.000
       2     35.000    120.000
       3     63.000    120.000
       4     35.000    120.000
       5     63.000    120.000
       6     35.000    120.000
       7     63.000    120.000
       8     35.000    120.000
       9     35.000    120.000
      10     70.000    120.000
      11     35.000    109.500
      12     35.000    109.500
      13     35.000    109.500
      14     63.000    120.000
      15     35.000    120.000
      16     35.000    120.000
      17     63.000    120.000
      18     35.000    120.000
      19     35.000    120.000
      20     70.000    120.000
      21     35.000    120.000
      22     33.000    107.800
      23     33.000    107.800
      24     33.000    107.800

Dihedral Coeffs  

       1      0.000      7.250      0.000      0.000 
       2      0.000      7.250      0.000      0.000 
       3      0.000      7.250      0.000      0.000 
       4      0.000      7.250      0.000      0.000 
       5      0.000      7.250      0.000      0.000 
       6      0.000      7.250      0.000      0.000 
       7      0.000      7.250      0.000      0.000 
       8      0.000      7.250      0.000      0.000 
       9      0.000      0.000      0.000      0.000 
      10      0.000      0.000      0.000      0.000 
      11      0.000      0.000      0.000      0.000 
      12      0.000      7.250      0.000      0.000 
      13      0.000      7.250      0.000      0.000 
      14      0.000      7.250      0.000      0.000 
      15      0.000      7.250      0.000      0.000 
      16      0.000      7.250      0.000      0.000 
      17      0.000      7.250      0.000      0.000 
      18      0.000      7.250      0.000      0.000 
      19      0.000      7.250      0.000      0.000 
      20      0.000      7.250      0.000      0.000 
      21      0.000      7.250      0.000      0.000 
      22      0.000      7.250      0.000      0.000 
      23      0.000      7.250      0.000      0.000 
      24      0.000      7.250      0.000      0.000 
      25      0.000      7.250      0.000      0.000 
      26      0.000      0.000      0.000      0.000 
      27      0.000      0.000      0.000      0.000 
      28      0.000      0.000      0.000      0.000 
      29      0.000      7.250      0.000      0.000 
      30      0.000      7.250      0.000      0.000 

Improper Coeffs 

       1      2.500      -1       2 
       2      2.500      -1       2 
       3      2.500      -1       2 
       4      2.500      -1       2 
       5      2.500      -1       2 
       6      2.500      -1       2 

Atoms 

     1      1      1 -0.08110000    1.000  1.00000  0.00000
     2      1      2 -0.14710000   -0.405  1.00000  0.00000
     3      1      3 -0.14430000   -1.108  1.00000  1.20965
     4      1      4 0.14770000   -0.957  1.00118 -0.93219
     5      1      5 -0.15370000   -0.413  1.00000  2.42166
     6      1      6 0.14710000   -2.189  1.00119  1.20465
     7      1      7 -0.14330000    0.985  1.00000  2.42620
     8      1      8 0.14640000   -0.957  1.00119  3.35700
     9      1      9 -0.14870000    1.688  1.00000  1.22326
    10      1     10 0.14680000    1.521  1.00119  3.36634
    11      1     11 0.14710000    2.771  0.99882  1.24074
    12      1     12 -0.20140000    1.767  0.99837 -1.28941
    13      1     13 0.09490000    1.086  0.99726 -2.16693
    14      1     14 0.09490000    2.407  0.09240 -1.33957
    15      1     15 0.09490000    2.407  1.90421 -1.34186

Bonds 

     1      1      2      1
     2      2      3      2
     3      3      4      2
     4      4      5      3
     5      5      6      3
     6      6      7      5
     7      7      8      5
     8      8      9      1
     9      9     10      7
    10     10     11      9
    11     11     12      1
    12     12     13     12
    13     13     14     12
    14     14     15     12
    15     15      9      7

Angles 

     1      1      1      2      3
     2      2      1      2      4
     3      3      2      3      5
     4      4      2      3      6
     5      5      3      5      7
     6      6      3      5      8
     7      7      2      1      9
     8      8      5      7     10
     9      9      1      9     11
    10     10      2      1     12
    11     11      1     12     13
    12     12      1     12     14
    13     13      1     12     15
    14     14      1      9      7
    15     15      3      2      4
    16     16      5      3      6
    17     17      5      7      9
    18     18      7      5      8
    19     19      7      9     11
    20     20      9      1     12
    21     21      9      7     10
    22     22     13     12     14
    23     23     13     12     15
    24     24     14     12     15

Dihedrals

     1      1      5      3      2      1 
     2      2      6      3      2      1 
     3      3      7      5      3      2 
     4      4      8      5      3      2 
     5      5      9      1      2      3 
     6      6     10      7      5      3 
     7      7     11      9      1      2 
     8      8     12      1      2      3 
     9      9     13     12      1      2 
    10     10     14     12      1      2 
    11     11     15     12      1      2 
    12     12      5      7      9      1 
    13     13     10      7      9      1 
    14     14      7      9      1      2 
    15     15      9      7      5      3 
    16     16      9      1      2      4 
    17     17     12      1      2      4 
    18     18      5      3      2      4 
    19     19      6      3      2      4 
    20     20     11      9      7      5 
    21     21      7      5      3      6 
    22     22      8      5      3      6 
    23     23     12      1      9      7 
    24     24      9      7      5      8 
    25     25     10      7      5      8 
    26     26     13     12      1      9 
    27     27     14     12      1      9 
    28     28     15     12      1      9 
    29     29     11      9      7     10 
    30     30     12      1      9     11 

Impropers

     1      1      2      4      1      3 
     2      2      1      2      9     12 
     3      3      3      2      5      6 
     4      4      5      3      7      8 
     5      5      7      5      9     10 
     6      6      9      1      7     11 
