15
	Energy:      51.2533405
C         -1.11016        1.11918       -0.20050
C          1.39851        1.12801        0.19663
C         -0.54262       -0.13943       -0.09911
C          0.83861       -0.13462        0.10302
S          0.14080        2.23761       -0.00536
O          1.51285       -1.30655        0.19147
O         -1.20974       -1.31595       -0.18033
C         -0.58220       -2.48502        0.24067
C          0.89243       -2.48198       -0.22230
H          1.44431       -3.36543        0.16121
H          0.90295       -2.51497       -1.33386
H         -1.12871       -3.37415       -0.13736
H         -0.59255       -2.51121        1.35242
H         -2.15675        1.34110       -0.35925
H          2.44373        1.35725        0.35400
