34
	Energy:      68.9083536
C         -3.91132        0.96508        0.05173
C         -1.40564        1.04465       -0.06089
C         -3.32219       -0.29105        0.04529
C         -1.91677       -0.24452       -0.01790
H         -3.89927       -1.20515        0.08532
S         -2.69435        2.12343       -0.02057
O         -1.10446       -1.32920       -0.03694
C         -1.53899       -2.63875        0.00306
C         -0.33884       -3.57566       -0.03555
H         -2.19255       -2.84472       -0.87331
H         -2.11185       -2.81608        0.94006
O         -0.79846       -4.90931        0.00607
H          0.30095       -3.35122        0.84896
H          0.21952       -3.38018       -0.98005
C          0.30534       -5.78820       -0.02950
C         -0.20299       -7.22376        0.01695
H          0.96518       -5.62866        0.85438
H          0.88243       -5.65842       -0.97407
O          0.90080       -8.10269       -0.01864
H         -0.86282       -7.38340       -0.86692
H         -0.78009       -7.35343        0.96153
C          0.44124       -9.43652        0.02475
C          1.64089      -10.37522       -0.01453
H         -0.20020       -9.66149       -0.85845
H         -0.11637       -9.63086        0.96994
O          1.18200      -11.70908        0.02889
H          2.28239      -10.14989        0.86867
H          2.19854      -10.18056       -0.95978
C          2.28733      -12.58251       -0.00713
H          1.90923      -13.62483        0.02778
H          2.94247      -12.44425        0.88166
H          2.85811      -12.47520       -0.95631
H         -4.97369        1.16300        0.09583
H         -0.35798        1.30947       -0.11161
