19
	Energy:     141.7897684
C         -2.78235       -0.16576        1.01945
C          3.43142        0.24670        0.91576
C          2.83945       -1.02668        0.89015
C         -2.02714       -1.34880        0.97139
S         -1.75866        1.21219        1.04003
C         -0.37521        0.27483        0.98735
C         -0.67264       -1.04726        0.95487
H         -2.44022       -2.34834        0.95033
C          0.98858        0.36353        0.96454
C          1.45552       -0.90963        0.91925
N          0.44384       -1.81477        0.91204
S          2.23591        1.47658        0.97335
H          3.38691       -1.95846        0.85318
C          0.51712       -3.27067        0.86881
H          1.57247       -3.61200        0.83938
H         -0.00549       -3.64201       -0.03754
H          0.02815       -3.69401        1.77113
H         -3.86288       -0.12988        1.04057
H          4.49778        0.42579        0.90108
