27
	Energy:      38.5696147
C         -1.34928       -0.66957        0.06761
C          1.15156       -0.65149       -0.06232
C         -0.79082       -1.93930        0.05228
C          0.61631       -1.93503       -0.02076
H         -1.39875       -2.83251        0.09341
S         -0.10815        0.45929       -0.00890
C          1.50566       -3.15495       -0.05380
C          0.74705       -4.48912       -0.00011
H          2.19924       -3.10120        0.81358
H          2.10571       -3.12056       -0.98923
C          1.71796       -5.67555       -0.03774
H          0.05909       -4.55569       -0.87176
H          0.15304       -4.53624        0.93926
C          0.96106       -7.00794        0.01584
H          2.40957       -5.61153        0.83130
H          2.31586       -5.63093       -0.97485
C          1.93222       -8.19350       -0.02182
H          0.26952       -7.07249       -0.85325
H          0.36323       -7.05310        0.95299
C          1.18275       -9.52162        0.03132
H          2.62442       -8.13740        0.84657
H          2.53078       -8.15678       -0.95818
H          0.59229       -9.59454        0.96948
H          1.90955      -10.36061        0.00262
H          0.49847       -9.61395       -0.83892
H         -2.40632       -0.44672        0.12005
H          2.20397       -0.40644       -0.11955
