12
	Energy:      77.7111667
C         -3.91157        0.58692       -0.00000
C          0.58689        1.39193        0.00000
C         -2.86189       -0.33825       -0.00000
C         -1.63448        0.31214       -0.00000
C         -1.69020        1.66671       -0.00000
C         -0.46280        2.31710       -0.00000
H         -2.98899       -1.41242       -0.00000
H         -0.33570        3.39127       -0.00000
S         -3.28721        2.17558       -0.00000
S         -0.03747       -0.19673        0.00000
H          1.63767        1.64786        0.00000
H         -4.96235        0.33099       -0.00000
