LAMMPS data file Created by - (Written by Leela S. Dodda)

     136 atoms
     151 bonds
     262 angles
     338 dihedrals
      58 impropers
 
     136 atom types
     151 bond types
     262 angle types
     338 dihedral types
      58 improper types
 
  -14.348830    35.651170 xlo xhi
   -4.497650    45.502350 ylo yhi
  -13.675460    36.324540 zlo zhi

Masses

       1      1.008  
       2     12.011  
       3     12.011  
       4     12.011  
       5     12.011  
       6     12.011  
       7      1.008  
       8     12.011  
       9     32.060  
      10     12.011  
      11      1.008  
      12     12.011  
      13     12.011  
      14     12.011  
      15     15.999  
      16     12.011  
      17     12.011  
      18     12.011  
      19     12.011  
      20     12.011  
      21     12.011  
      22     15.999  
      23     12.011  
      24     12.011  
      25     32.060  
      26     12.011  
      27     12.011  
      28     12.011  
      29     14.007  
      30      1.008  
      31      1.008  
      32     12.011  
      33     32.060  
      34     12.011  
      35     12.011  
      36     12.011  
      37      1.008  
      38     12.011  
      39      1.008  
      40     12.011  
      41     12.011  
      42     12.011  
      43     12.011  
      44     12.011  
      45      1.008  
      46      1.008  
      47     12.011  
      48      1.008  
      49     12.011  
      50      1.008  
      51     12.011  
      52     12.011  
      53      1.008  
      54     12.011  
      55     12.011  
      56     15.999  
      57     14.007  
      58     15.999  
      59      1.008  
      60      1.008  
      61      1.008  
      62     12.011  
      63      1.008  
      64      1.008  
      65      1.008  
      66      1.008  
      67      1.008  
      68     12.011  
      69     12.011  
      70     12.011  
      71     12.011  
      72      1.008  
      73      1.008  
      74      1.008  
      75      1.008  
      76     12.011  
      77      1.008  
      78     12.011  
      79     32.060  
      80     12.011  
      81      1.008  
      82      1.008  
      83      1.008  
      84      1.008  
      85     12.011  
      86     12.011  
      87     12.011  
      88     15.999  
      89     12.011  
      90     12.011  
      91     12.011  
      92     12.011  
      93     12.011  
      94     12.011  
      95     15.999  
      96     12.011  
      97     12.011  
      98     32.060  
      99     12.011  
     100     12.011  
     101      1.008  
     102      1.008  
     103      1.008  
     104      1.008  
     105      1.008  
     106     12.011  
     107     32.060  
     108     12.011  
     109     12.011  
     110     12.011  
     111      1.008  
     112     12.011  
     113      1.008  
     114     12.011  
     115      1.008  
     116      1.008  
     117     12.011  
     118      1.008  
     119     12.011  
     120      1.008  
     121     12.011  
     122     12.011  
     123      1.008  
     124      1.008  
     125     12.011  
     126      1.008  
     127     12.011  
     128      1.008  
     129      1.008  
     130      1.008  
     131      1.008  
     132      1.008  
     133      1.008  
     134      1.008  
     135      1.008  
     136      1.008  

Pair Coeffs 

       1      0.030  2.4200000 
       2      0.070  3.5500000 
       3      0.070  3.5500000 
       4      0.070  3.5500000 
       5      0.070  3.5500000 
       6      0.070  3.5500000 
       7      0.030  2.4200000 
       8      0.080  3.5000000 
       9      0.355  3.6000000 
      10      0.070  3.5500000 
      11      0.030  2.4200000 
      12      0.080  3.5000000 
      13      0.070  3.5500000 
      14      0.070  3.5500000 
      15      0.140  2.9000000 
      16      0.070  3.5500000 
      17      0.070  3.5500000 
      18      0.070  3.5500000 
      19      0.080  3.5000000 
      20      0.070  3.5500000 
      21      0.066  3.5000000 
      22      0.140  2.9000000 
      23      0.070  3.5500000 
      24      0.080  3.5000000 
      25      0.355  3.6000000 
      26      0.070  3.5500000 
      27      0.070  3.5500000 
      28      0.076  3.5500000 
      29      0.170  3.2500000 
      30      0.030  2.5000000 
      31      0.030  2.5000000 
      32      0.066  3.5000000 
      33      0.355  3.6000000 
      34      0.070  3.5500000 
      35      0.070  3.5500000 
      36      0.070  3.5500000 
      37      0.030  2.4200000 
      38      0.070  3.5500000 
      39      0.030  2.4200000 
      40      0.070  3.5500000 
      41      0.076  3.5500000 
      42      0.070  3.5500000 
      43      0.070  3.5500000 
      44      0.066  3.5000000 
      45      0.030  2.5000000 
      46      0.030  2.5000000 
      47      0.070  3.5500000 
      48      0.030  2.4200000 
      49      0.070  3.5500000 
      50      0.030  2.4200000 
      51      0.070  3.5500000 
      52      0.066  3.5000000 
      53      0.030  2.4200000 
      54      0.070  3.5500000 
      55      0.070  3.5500000 
      56      0.210  2.9600000 
      57      0.170  3.2500000 
      58      0.210  2.9600000 
      59      0.030  2.5000000 
      60      0.030  2.5000000 
      61      0.030  2.5000000 
      62      0.066  3.5000000 
      63      0.030  2.4200000 
      64      0.030  2.4200000 
      65      0.030  2.5000000 
      66      0.030  2.5000000 
      67      0.030  2.5000000 
      68      0.070  3.5500000 
      69      0.070  3.5500000 
      70      0.070  3.5500000 
      71      0.066  3.5000000 
      72      0.030  2.5000000 
      73      0.030  2.5000000 
      74      0.030  2.5000000 
      75      0.030  2.4200000 
      76      0.070  3.5500000 
      77      0.030  2.4200000 
      78      0.080  3.5000000 
      79      0.355  3.6000000 
      80      0.070  3.5500000 
      81      0.030  2.5000000 
      82      0.030  2.5000000 
      83      0.030  2.5000000 
      84      0.030  2.4200000 
      85      0.080  3.5000000 
      86      0.070  3.5500000 
      87      0.070  3.5500000 
      88      0.140  2.9000000 
      89      0.070  3.5500000 
      90      0.070  3.5500000 
      91      0.070  3.5500000 
      92      0.080  3.5000000 
      93      0.066  3.5000000 
      94      0.066  3.5000000 
      95      0.140  2.9000000 
      96      0.070  3.5500000 
      97      0.080  3.5000000 
      98      0.355  3.6000000 
      99      0.070  3.5500000 
     100      0.070  3.5500000 
     101      0.030  2.5000000 
     102      0.030  2.5000000 
     103      0.030  2.5000000 
     104      0.030  2.5000000 
     105      0.030  2.5000000 
     106      0.066  3.5000000 
     107      0.355  3.6000000 
     108      0.070  3.5500000 
     109      0.070  3.5500000 
     110      0.070  3.5500000 
     111      0.030  2.4200000 
     112      0.070  3.5500000 
     113      0.030  2.4200000 
     114      0.070  3.5500000 
     115      0.030  2.5000000 
     116      0.030  2.5000000 
     117      0.070  3.5500000 
     118      0.030  2.4200000 
     119      0.070  3.5500000 
     120      0.030  2.4200000 
     121      0.070  3.5500000 
     122      0.066  3.5000000 
     123      0.030  2.4200000 
     124      0.030  2.4200000 
     125      0.066  3.5000000 
     126      0.030  2.4200000 
     127      0.066  3.5000000 
     128      0.030  2.5000000 
     129      0.030  2.5000000 
     130      0.030  2.5000000 
     131      0.030  2.5000000 
     132      0.030  2.5000000 
     133      0.030  2.5000000 
     134      0.030  2.5000000 
     135      0.030  2.5000000 
     136      0.030  2.5000000 

Bond Coeffs 

       1   367.0000     1.0800 
       2   469.0000     1.4000 
       3   469.0000     1.4000 
       4   385.0000     1.4600 
       5   469.0000     1.4000 
       6   367.0000     1.0800 
       7   469.0000     1.4040 
       8   250.0000     1.7400 
       9   546.0000     1.3800 
      10   367.0000     1.0800 
      11   469.0000     1.4040 
      12   469.0000     1.4000 
      13   250.0000     1.7600 
      14   450.0000     1.3640 
      15   469.0000     1.4240 
      16   469.0000     1.4000 
      17   385.0000     1.4600 
      18   469.0000     1.4000 
      19   469.0000     1.4240 
      20   320.0000     1.4100 
      21   450.0000     1.3640 
      22   385.0000     1.4600 
      23   469.0000     1.4000 
      24   250.0000     1.7400 
      25   546.0000     1.3800 
      26   469.0000     1.4040 
      27   427.0000     1.4330 
      28   427.0000     1.3810 
      29   340.0000     1.0900 
      30   340.0000     1.0900 
      31   268.0000     1.5290 
      32   250.0000     1.7400 
      33   546.0000     1.3800 
      34   469.0000     1.4040 
      35   250.0000     1.7400 
      36   367.0000     1.0800 
      37   469.0000     1.4240 
      38   367.0000     1.0800 
      39   469.0000     1.4000 
      40   549.0000     1.3400 
      41   410.0000     1.4440 
      42   418.0000     1.3880 
      43   337.0000     1.4750 
      44   340.0000     1.0900 
      45   340.0000     1.0900 
      46   250.0000     1.7400 
      47   367.0000     1.0800 
      48   469.0000     1.4240 
      49   367.0000     1.0800 
      50   469.0000     1.4000 
      51   278.0000     1.4960 
      52   367.0000     1.0800 
      53   385.0000     1.4600 
      54   427.0000     1.4330 
      55   570.0000     1.2290 
      56   418.0000     1.3880 
      57   570.0000     1.2290 
      58   340.0000     1.0900 
      59   340.0000     1.0900 
      60   340.0000     1.0900 
      61   278.0000     1.4960 
      62   367.0000     1.0800 
      63   367.0000     1.0800 
      64   340.0000     1.0900 
      65   340.0000     1.0900 
      66   340.0000     1.0900 
      67   469.0000     1.4000 
      68   469.0000     1.4000 
      69   469.0000     1.4240 
      70   337.0000     1.4750 
      71   340.0000     1.0900 
      72   340.0000     1.0900 
      73   340.0000     1.0900 
      74   367.0000     1.0800 
      75   469.0000     1.4000 
      76   367.0000     1.0800 
      77   469.0000     1.4040 
      78   250.0000     1.7600 
      79   469.0000     1.4240 
      80   340.0000     1.0900 
      81   340.0000     1.0900 
      82   340.0000     1.0900 
      83   367.0000     1.0800 
      84   469.0000     1.4040 
      85   469.0000     1.4000 
      86   250.0000     1.7400 
      87   450.0000     1.3640 
      88   469.0000     1.4240 
      89   469.0000     1.4000 
      90   385.0000     1.4600 
      91   469.0000     1.4000 
      92   278.0000     1.4960 
      93   320.0000     1.4100 
      94   450.0000     1.3640 
      95   385.0000     1.4600 
      96   469.0000     1.4000 
      97   250.0000     1.7400 
      98   546.0000     1.3800 
      99   469.0000     1.4040 
     100   340.0000     1.0900 
     101   340.0000     1.0900 
     102   340.0000     1.0900 
     103   340.0000     1.0900 
     104   340.0000     1.0900 
     105   268.0000     1.5290 
     106   250.0000     1.7400 
     107   546.0000     1.3800 
     108   469.0000     1.4040 
     109   250.0000     1.7400 
     110   367.0000     1.0800 
     111   469.0000     1.4240 
     112   367.0000     1.0800 
     113   469.0000     1.4000 
     114   340.0000     1.0900 
     115   340.0000     1.0900 
     116   250.0000     1.7400 
     117   367.0000     1.0800 
     118   469.0000     1.4240 
     119   367.0000     1.0800 
     120   469.0000     1.4000 
     121   278.0000     1.4960 
     122   367.0000     1.0800 
     123   367.0000     1.0800 
     124   278.0000     1.4960 
     125   367.0000     1.0800 
     126   317.0000     1.5100 
     127   340.0000     1.0900 
     128   340.0000     1.0900 
     129   340.0000     1.0900 
     130   340.0000     1.0900 
     131   340.0000     1.0900 
     132   340.0000     1.0900 
     133   340.0000     1.0900 
     134   340.0000     1.0900 
     135   340.0000     1.0900 
     136   520.0000     1.3700 
     137   469.0000     1.4240 
     138   520.0000     1.3700 
     139   320.0000     1.4100 
     140   546.0000     1.3800 
     141   469.0000     1.4000 
     142   410.0000     1.4440 
     143   546.0000     1.3800 
     144   427.0000     1.3810 
     145   520.0000     1.3700 
     146   546.0000     1.3800 
     147   520.0000     1.3700 
     148   320.0000     1.4100 
     149   546.0000     1.3800 
     150   469.0000     1.4000 
     151   546.0000     1.3800 

Angle Coeffs 

       1     35.000    120.000
       2     35.000    120.000
       3     63.000    120.500
       4     63.000    120.000
       5     35.000    120.000
       6     63.000    120.000
       7     63.000    121.700
       8     63.000    127.700
       9     35.000    120.000
      10     63.000    120.000
      11     85.000    134.900
      12     99.090    106.390
      13     58.260    120.190
      14     70.000    112.300
      15     85.000    134.900
      16     63.000    120.500
      17     63.000    120.000
      18     85.000    119.400
      19     75.000    111.000
      20     70.000    120.000
      21     63.000    120.500
      22     63.000    120.000
      23     63.000    121.700
      24     63.000    127.700
      25     85.000    134.900
      26     63.000    120.000
      27     70.000    108.700
      28     35.000    109.500
      29     35.000    109.500
      30     50.000    109.500
      31     63.000    121.700
      32     63.000    127.700
      33     85.000    134.900
      34     70.000     92.200
      35     35.000    123.100
      36     70.000    112.300
      37     35.000    120.000
      38     63.000    120.000
      39     85.000    117.000
      40     85.000    120.000
      41     70.000    125.200
      42     70.000    116.900
      43     37.500    110.700
      44     37.500    110.700
      45     70.000     92.200
      46     35.000    123.100
      47     70.000    112.300
      48     35.000    120.000
      49     63.000    120.000
      50     70.000    121.400
      51     35.000    127.500
      52     63.000    120.000
      53     85.000    117.000
      54     80.000    125.300
      55     70.000    114.100
      56     80.000    120.600
      57     35.000    109.500
      58     35.000    109.500
      59     35.000    109.500
      60     70.000    121.400
      61     35.000    127.500
      62     35.000    120.000
      63     35.000    109.500
      64     35.000    109.500
      65     35.000    109.500
      66     63.000    120.000
      67     63.000    120.000
      68     63.000    120.000
      69     70.000    116.900
      70     35.000    109.500
      71     35.000    109.500
      72     35.000    109.500
      73     35.000    120.000
      74     63.000    120.000
      75     35.000    120.000
      76     63.000    120.000
      77     85.000    119.400
      78     63.000    120.000
      79     35.000    109.500
      80     35.000    109.500
      81     35.000    109.500
      82     35.000    120.000
      83     63.000    120.000
      84     85.000    134.900
      85     99.090    106.390
      86     70.000    120.000
      87     63.000    120.000
      88     85.000    134.900
      89     63.000    120.500
      90     63.000    120.000
      91     70.000    121.400
      92     75.000    111.000
      93     70.000    120.000
      94     63.000    120.500
      95     63.000    120.000
      96     63.000    121.700
      97     63.000    127.700
      98     85.000    134.900
      99     35.000    109.500
     100     35.000    109.500
     101     35.000    109.500
     102     35.000    109.500
     103     35.000    109.500
     104     50.000    109.500
     105     63.000    121.700
     106     63.000    127.700
     107     85.000    134.900
     108     70.000     92.200
     109     35.000    123.100
     110     70.000    112.300
     111     35.000    120.000
     112     63.000    120.000
     113     37.500    110.700
     114     37.500    110.700
     115     70.000     92.200
     116     35.000    123.100
     117     70.000    112.300
     118     35.000    120.000
     119     63.000    120.000
     120     70.000    121.400
     121     35.000    127.500
     122     35.000    120.000
     123     70.000    121.400
     124     35.000    127.500
     125     70.000    120.000
     126     35.000    109.500
     127     35.000    109.500
     128     35.000    109.500
     129     35.000    109.500
     130     35.000    109.500
     131     35.000    109.500
     132     35.000    109.500
     133     35.000    109.500
     134     35.000    109.500
     135     63.000    120.000
     136     85.000    117.300
     137     63.000    120.500
     138     85.000    117.300
     139     35.000    120.000
     140     85.000    117.300
     141     70.000    111.000
     142     85.000    119.400
     143     63.000    120.000
     144     35.000    120.000
     145     85.000    117.300
     146     85.000    117.300
     147     70.000    120.000
     148     70.000    120.000
     149     63.000    120.000
     150     75.000    111.000
     151     85.000    117.300
     152     63.000    120.500
     153     85.000    117.300
     154     50.000    109.500
     155     35.000    109.500
     156     35.000    109.500
     157     63.000    120.500
     158     85.000    117.300
     159     70.000    111.000
     160     70.000    111.000
     161     70.000    112.300
     162     63.000    120.000
     163     70.000    108.700
     164     85.000    120.700
     165     70.000    114.100
     166     33.000    107.800
     167     37.500    110.700
     168     37.500    110.700
     169     70.000    111.000
     170     70.000    111.000
     171     70.000    112.300
     172     63.000    120.000
     173     35.000    123.100
     174     35.000    127.500
     175     70.000    128.500
     176     35.000    120.000
     177     35.000    120.000
     178     85.000    120.700
     179     70.000    108.700
     180     80.000    125.300
     181     70.000    125.200
     182     70.000    116.900
     183     85.000    120.000
     184     33.000    107.800
     185     35.000    123.100
     186     35.000    127.500
     187     70.000    128.500
     188     35.000    120.000
     189     63.000    120.000
     190     70.000    116.900
     191     80.000    120.600
     192     70.000    108.700
     193     33.000    107.800
     194     33.000    107.800
     195     33.000    107.800
     196     33.000    107.800
     197     33.000    107.800
     198     33.000    107.800
     199     63.000    120.000
     200     85.000    117.300
     201     33.000    107.800
     202     33.000    107.800
     203     33.000    107.800
     204     35.000    120.000
     205     85.000    117.300
     206     35.000    120.000
     207     85.000    117.300
     208     85.000    119.400
     209     70.000    111.000
     210     70.000    112.300
     211     33.000    107.800
     212     33.000    107.800
     213     33.000    107.800
     214     35.000    120.000
     215     85.000    117.300
     216     85.000    117.300
     217     58.260    120.190
     218     70.000    120.000
     219     70.000    128.500
     220     75.000    111.000
     221     85.000    117.300
     222     63.000    120.500
     223     85.000    117.300
     224     50.000    109.500
     225     35.000    109.500
     226     35.000    109.500
     227     63.000    120.500
     228     85.000    117.300
     229     70.000    111.000
     230     70.000    111.000
     231     70.000    112.300
     232     63.000    120.000
     233     33.000    107.800
     234     33.000    107.800
     235     33.000    107.800
     236     33.000    107.800
     237     37.500    110.700
     238     37.500    110.700
     239     70.000    111.000
     240     70.000    111.000
     241     70.000    112.300
     242     63.000    120.000
     243     35.000    123.100
     244     35.000    127.500
     245     70.000    128.500
     246     35.000    120.000
     247     70.000    120.000
     248     33.000    107.800
     249     35.000    123.100
     250     35.000    127.500
     251     70.000    128.500
     252     35.000    120.000
     253     35.000    120.000
     254     33.000    107.800
     255     33.000    107.800
     256     33.000    107.800
     257     33.000    107.800
     258     33.000    107.800
     259     33.000    107.800
     260     33.000    107.800
     261     33.000    107.800
     262     33.000    107.800

Dihedral Coeffs  

       1      0.000      7.250      0.000      0.000 
       2      0.000      7.250      0.000      0.000 
       3      0.000      7.250      0.000      0.000 
       4      0.000      7.250      0.000      0.000 
       5      0.000      1.330      0.000      0.000 
       6      0.000      1.490      0.000      0.000 
       7      0.000      7.250      0.000      0.000 
       8      0.000      7.250      0.000      0.000 
       9      0.000      7.250      0.000      0.000 
      10      0.000      7.250      0.000      0.000 
      11      0.000      2.170      0.000      0.000 
      12      0.000      7.250      0.000      0.000 
      13      0.000      7.000      0.000      0.000 
      14      0.000      7.250      0.000      0.000 
      15      0.000      7.250      0.000      0.000 
      16      0.000      7.250      0.000      0.000 
      17      0.650     -0.250      0.670      0.000 
      18      0.000      2.170      0.000      0.000 
      19      0.000      7.250      0.000      0.000 
      20      0.000      7.250      0.000      0.000 
      21      0.000      1.330      0.000      0.000 
      22      0.000      1.490      0.000      0.000 
      23      0.000      7.250      0.000      0.000 
      24      0.000      2.170      0.000      0.000 
      25      0.000      2.170      0.000      0.000 
      26      0.000      0.000      0.760      0.000 
      27      0.000      0.000      0.760      0.000 
      28      0.650     -0.250      0.670      0.000 
      29      0.000      1.330      0.000      0.000 
      30      0.000      1.490      0.000      0.000 
      31      0.000      7.250      0.000      0.000 
      32      0.000      7.250      0.000      0.000 
      33      0.000      7.250      0.000      0.000 
      34      0.000      7.250      0.000      0.000 
      35      0.000      7.250      0.000      0.000 
      36      0.000      7.000      0.000      0.000 
      37      0.000      3.431      0.000      0.000 
      38      0.000      7.250      0.000      0.000 
      39      0.000      5.000      0.000      0.000 
      40      0.000      5.000      0.000      0.000 
      41      0.000      0.000      0.468      0.000 
      42      0.000      0.000      0.468      0.000 
      43      0.000      7.250      0.000      0.000 
      44      0.000      7.250      0.000      0.000 
      45      0.000      7.250      0.000      0.000 
      46      0.000      7.250      0.000      0.000 
      47      0.000      7.250      0.000      0.000 
      48      0.000      7.250      0.000      0.000 
      49      0.000      7.250      0.000      0.000 
      50      0.000      7.250      0.000      0.000 
      51      0.000     14.000      0.000      0.000 
      52      2.500      6.000      0.000      0.000 
      53      2.000      0.000      0.000      0.000 
      54      0.000      4.900      0.000      0.000 
      55      0.000      0.000      0.000      0.000 
      56      0.000      0.000      0.000      0.000 
      57      0.000      0.000      0.000      0.000 
      58      0.000      7.250      0.000      0.000 
      59      0.000      7.250      0.000      0.000 
      60      0.000      7.250      0.000      0.000 
      61      0.970      0.080      0.140      0.000 
      62      0.970      0.080      0.140      0.000 
      63      0.970      0.080      0.140      0.000 
      64      0.000      1.650      0.000     -0.050 
      65      0.000      1.650      0.000     -0.050 
      66      0.000      3.431      0.000      0.000 
      67      0.000      4.900      0.000      0.000 
      68      0.970      0.080      0.140      0.000 
      69      0.970      0.080      0.140      0.000 
      70      0.970      0.080      0.140      0.000 
      71      0.000      7.250      0.000      0.000 
      72      0.000      7.250      0.000      0.000 
      73      0.000      7.250      0.000      0.000 
      74      0.000      7.250      0.000      0.000 
      75      0.000      2.170      0.000      0.000 
      76      0.000      7.250      0.000      0.000 
      77      0.000      0.000      0.000      0.000 
      78      0.000      0.000      0.000      0.000 
      79      0.000      0.000      0.000      0.000 
      80      0.000      7.250      0.000      0.000 
      81      0.000      7.250      0.000      0.000 
      82      0.000      7.000      0.000      0.000 
      83      0.000      7.250      0.000      0.000 
      84      0.000      2.170      0.000      0.000 
      85      0.000      7.250      0.000      0.000 
      86      0.000      7.250      0.000      0.000 
      87      0.000      7.250      0.000      0.000 
      88      0.000      7.250      0.000      0.000 
      89      0.000      7.250      0.000      0.000 
      90      0.000      3.370      0.000      0.300 
      91      0.000      2.170      0.000      0.000 
      92      0.000      7.250      0.000      0.000 
      93      0.000      7.250      0.000      0.000 
      94      0.000      1.330      0.000      0.000 
      95      0.000      1.490      0.000      0.000 
      96      0.000      7.250      0.000      0.000 
      97      0.970      0.080      0.140      0.000 
      98      0.970      0.080      0.140      0.000 
      99      0.970      0.080      0.140      0.000 
     100      0.000      0.000      0.760      0.000 
     101      0.000      0.000      0.760      0.000 
     102      0.650     -0.250      0.670      0.000 
     103      0.000      1.330      0.000      0.000 
     104      0.000      1.490      0.000      0.000 
     105      0.000      7.250      0.000      0.000 
     106      0.000      7.250      0.000      0.000 
     107      0.000      7.250      0.000      0.000 
     108      0.000      7.250      0.000      0.000 
     109      0.000      7.250      0.000      0.000 
     110      0.000      7.250      0.000      0.000 
     111      0.000      0.000      0.468      0.000 
     112      0.000      0.000      0.468      0.000 
     113      0.000      7.250      0.000      0.000 
     114      0.000      7.250      0.000      0.000 
     115      0.000      7.250      0.000      0.000 
     116      0.000      7.250      0.000      0.000 
     117      0.000      7.250      0.000      0.000 
     118      0.000      7.250      0.000      0.000 
     119      0.000      7.250      0.000      0.000 
     120      0.000      7.250      0.000      0.000 
     121      0.000      7.250      0.000      0.000 
     122      0.000      7.250      0.000      0.000 
     123      0.000      7.250      0.000      0.000 
     124      0.970      0.080      0.140      0.000 
     125      0.970      0.080      0.140      0.000 
     126      0.970      0.080      0.140      0.000 
     127      0.970      0.080      0.140      0.000 
     128      0.970      0.080      0.140      0.000 
     129      0.970      0.080      0.140      0.000 
     130      0.000      0.000      0.000      0.000 
     131      0.000      0.000      0.000      0.000 
     132      0.000      0.000      0.000      0.000 
     133      0.000      7.250      0.000      0.000 
     134      0.000      7.250      0.000      0.000 
     135      0.000      7.250      0.000      0.000 
     136      0.000      7.250      0.000      0.000 
     137      0.000      7.250      0.000      0.000 
     138      0.000      7.250      0.000      0.000 
     139      0.000      7.250      0.000      0.000 
     140      0.000      7.250      0.000      0.000 
     141      0.000      7.250      0.000      0.000 
     142      0.000      7.250      0.000      0.000 
     143      0.000      1.330      0.000      0.000 
     144      0.000      1.490      0.000      0.000 
     145      0.000      7.250      0.000      0.000 
     146      0.000      7.250      0.000      0.000 
     147      0.000      7.250      0.000      0.000 
     148      0.000      7.250      0.000      0.000 
     149      0.000      7.250      0.000      0.000 
     150      0.000      7.250      0.000      0.000 
     151      0.000      7.250      0.000      0.000 
     152      0.000      7.250      0.000      0.000 
     153      0.000      2.170      0.000      0.000 
     154      0.000      3.370      0.000      0.300 
     155      0.000      7.250      0.000      0.000 
     156      0.000      7.250      0.000      0.000 
     157      0.000      7.250      0.000      0.000 
     158      0.000      7.250      0.000      0.000 
     159      0.000      7.250      0.000      0.000 
     160      0.000      7.250      0.000      0.000 
     161      0.000      7.250      0.000      0.000 
     162      0.000      7.250      0.000      0.000 
     163      0.000      2.170      0.000      0.000 
     164      0.000      3.370      0.000      0.300 
     165      0.000      2.170      0.000      0.000 
     166     -0.550      0.000      0.000      0.000 
     167      0.000      3.370      0.000      0.300 
     168      0.650     -0.250      0.670      0.000 
     169      0.000      7.250      0.000      0.000 
     170      0.000      2.170      0.000      0.000 
     171      0.000      0.000      0.760      0.000 