14
	Energy:      12.5764761
C         -1.25527        0.76967        0.00000
C         -1.20552       -0.62809        0.00000
C          0.02739       -1.28565       -0.00000
H         -2.12345       -1.20165        0.00000
C         -0.06574        1.52118        0.00000
H         -2.22052        1.26054        0.00000
C          1.16863        0.85123       -0.00000
C          1.21325       -0.54665       -0.00000
H          0.06381       -2.36738       -0.00000
H          2.09704        1.40932       -0.00000
H          2.16775       -1.05701       -0.00000
C         -0.09340        2.99870        0.00000
O         -1.15057        3.61000        0.00000
H          0.83688        3.55828        0.00000
