17
	Energy:       8.4581735
C         -1.71852        0.79720       -0.20105
C         -1.69526       -0.66623        0.26479
C         -0.42645        1.44502        0.20644
H         -2.59256        1.32855        0.23380
H         -1.80006        0.82975       -1.30923
C          0.84538        0.79363       -0.25542
C          0.83783       -0.66975        0.21107
H          1.73855        1.32253        0.14194
H          0.87995        0.82603       -1.36607
C         -0.44047       -1.38671       -0.26921
H         -2.61162       -1.18582       -0.08827
H         -1.68520       -0.69766        1.37705
H          0.87484       -0.70121        1.32276
H          1.73695       -1.19186       -0.18049
H         -0.46407       -1.40047       -1.38116
H         -0.43427       -2.43740        0.09196
O         -0.40980        2.43118        0.92678
