9
	Energy:      32.1723649
C         -0.84364       -0.35395       -0.00000
C          0.55512       -0.30770        0.00000
C         -1.43852        0.89951        0.00000
H         -1.40690       -1.27758       -0.00000
C          1.06590        0.98232        0.00000
H          1.17817       -1.19210       -0.00000
S         -0.22337        2.06170        0.00000
H         -2.50259        1.09315        0.00000
H          2.11486        1.24583        0.00000
